
     Program PWSCF v.5.1 starts on 13Jun2014 at 15: 7:53 

     This program is part of the open-source Quantum ESPRESSO suite
     for quantum simulation of materials; please cite
         "P. Giannozzi et al., J. Phys.:Condens. Matter 21 395502 (2009);
          URL http://www.quantum-espresso.org", 
     in publications or presentations arising from this work. More details at
     http://www.quantum-espresso.org/quote

     Serial version

     Program PWSCF v.5.1 starts on 13Jun2014 at 15: 7:53 

     This program is part of the open-source Quantum ESPRESSO suite
     for quantum simulation of materials; please cite
         "P. Giannozzi et al., J. Phys.:Condens. Matter 21 395502 (2009);
          URL http://www.quantum-espresso.org", 
     in publications or presentations arising from this work. More details at
     http://www.quantum-espresso.org/quote

     Serial version

     Program PWSCF v.5.1 starts on 13Jun2014 at 15: 7:53 

     This program is part of the open-source Quantum ESPRESSO suite
     for quantum simulation of materials; please cite
         "P. Giannozzi et al., J. Phys.:Condens. Matter 21 395502 (2009);
          URL http://www.quantum-espresso.org", 
     in publications or presentations arising from this work. More details at
     http://www.quantum-espresso.org/quote

     Serial version

     Program PWSCF v.5.1 starts on 13Jun2014 at 15: 7:53 

     This program is part of the open-source Quantum ESPRESSO suite
     for quantum simulation of materials; please cite
         "P. Giannozzi et al., J. Phys.:Condens. Matter 21 395502 (2009);
          URL http://www.quantum-espresso.org", 
     in publications or presentations arising from this work. More details at
     http://www.quantum-espresso.org/quote

     Serial version
     Reading input from in_new
     Reading input from in_new
     Reading input from in_new
     Reading input from in_new
     Message from routine read_cards :
     Message from routine read_cards :
     Message from routine read_cards :
     Message from routine read_cards :
     DEPRECATED: no units specified in CELL_PARAMETERS card
     DEPRECATED: no units specified in CELL_PARAMETERS card
     DEPRECATED: no units specified in CELL_PARAMETERS card
     DEPRECATED: no units specified in CELL_PARAMETERS card


     Current dimensions of program PWSCF are:

     Current dimensions of program PWSCF are:

     Current dimensions of program PWSCF are:
     Current dimensions of program PWSCF are:
     Max number of different atomic species (ntypx) = 10
     Max number of different atomic species (ntypx) = 10
     Max number of k-points (npk) =  40000
     Max angular momentum in pseudopotentials (lmaxx) =  3
     Max number of different atomic species (ntypx) = 10
     Max number of k-points (npk) =  40000
     Max angular momentum in pseudopotentials (lmaxx) =  3
     Max number of different atomic species (ntypx) = 10
     Max number of k-points (npk) =  40000
     Max angular momentum in pseudopotentials (lmaxx) =  3
     Max number of k-points (npk) =  40000
     Max angular momentum in pseudopotentials (lmaxx) =  3

     Atomic positions and unit cell read from directory:

     Atomic positions and unit cell read from directory:

     Atomic positions and unit cell read from directory:

     Atomic positions and unit cell read from directory:
     ./c.save/
     ./c.save/
     ./c.save/
     ./c.save/





     G-vector sticks info
     --------------------
     sticks:   dense  smooth     PW     G-vecs:    dense   smooth      PW
     Sum        8929    8929   2233               632851   632851   79117


     G-vector sticks info
     --------------------
     sticks:   dense  smooth     PW     G-vecs:    dense   smooth      PW
     Sum        8929    8929   2233               632851   632851   79117


     G-vector sticks info
     --------------------

     G-vector sticks info
     --------------------
     sticks:   dense  smooth     PW     G-vecs:    dense   smooth      PW
     Sum        8929    8929   2233               632851   632851   79117

     sticks:   dense  smooth     PW     G-vecs:    dense   smooth      PW
     Sum        8929    8929   2233               632851   632851   79117



     bravais-lattice index     =            0
     lattice parameter (alat)  =      13.2280  a.u.
     unit-cell volume          =    2314.6352 (a.u.)^3
     number of atoms/cell      =            1
     number of atomic types    =            1
     number of electrons       =         4.00
     number of Kohn-Sham states=           15
     kinetic-energy cutoff     =     160.0000  Ry
     charge density cutoff     =     640.0000  Ry
     Exchange-correlation      = PZ ( 1  1  0  0 0)

     celldm(1)=  13.228000  celldm(2)=   0.000000  celldm(3)=   0.000000
     celldm(4)=   0.000000  celldm(5)=   0.000000  celldm(6)=   0.000000

     crystal axes: (cart. coord. in units of alat)
               a(1) = (   1.000000   0.000000   0.000000 )  
               a(2) = (   0.000000   1.000000   0.000000 )  
               a(3) = (   0.000000   0.000000   1.000000 )  

     reciprocal axes: (cart. coord. in units 2 pi/alat)
               b(1) = (  1.000000  0.000000  0.000000 )  
               b(2) = (  0.000000  1.000000  0.000000 )  
               b(3) = (  0.000000  0.000000  1.000000 )  


     PseudoPot. # 1 for  C read from file:
     ./C.UPF
     MD5 check sum: 069fdc73ccf29716ce93193576c2ec17
     Pseudo is Norm-conserving, Zval =  4.0
     Generated using "atomic" code by A. Dal Corso  (Quantum ESPRESSO distribution)
     Using radial grid of 1073 points,  2 beta functions with: 
                l(1) =   0
                l(2) =   1

     atomic species   valence    mass     pseudopotential
        C              4.00    12.01100      C( 1.00)

      8 Sym. Ops. (no inversion) found
          (note: 40 additional sym.ops. were found but ignored
           their fractional translations are incommensurate with FFT grid)


   Cartesian axes

     site n.     atom                  positions (alat units)
         1           C   tau(   1) = (  -0.0805866   0.0000000   0.0000000  )

     number of k points=     1
                       cart. coord. in units 2pi/alat
        k(    1) = (   0.0000000   0.0000000   0.0000000), wk =   2.0000000

     Dense  grid:   632851 G-vectors     FFT dimensions: ( 108, 108, 108)


     bravais-lattice index     =            0
     lattice parameter (alat)  =      13.2280  a.u.
     unit-cell volume          =    2314.6352 (a.u.)^3
     number of atoms/cell      =            1
     number of atomic types    =            1
     number of electrons       =         4.00
     number of Kohn-Sham states=           15
     kinetic-energy cutoff     =     160.0000  Ry
     charge density cutoff     =     640.0000  Ry
     Exchange-correlation      = PZ ( 1  1  0  0 0)

     celldm(1)=  13.228000  celldm(2)=   0.000000  celldm(3)=   0.000000
     celldm(4)=   0.000000  celldm(5)=   0.000000  celldm(6)=   0.000000

     crystal axes: (cart. coord. in units of alat)
               a(1) = (   1.000000   0.000000   0.000000 )  
               a(2) = (   0.000000   1.000000   0.000000 )  
               a(3) = (   0.000000   0.000000   1.000000 )  

     reciprocal axes: (cart. coord. in units 2 pi/alat)
               b(1) = (  1.000000  0.000000  0.000000 )  

     Largest allocated arrays     est. size (Mb)     dimensions
               b(2) = (  0.000000  1.000000  0.000000 )  
               b(3) = (  0.000000  0.000000  1.000000 )  

        Kohn-Sham Wavefunctions        18.11 Mb     (   79117,   15)
        NL pseudopotentials             4.83 Mb     (   79117,    4)

     PseudoPot. # 1 for  C read from file:
     ./C.UPF
     MD5 check sum: 069fdc73ccf29716ce93193576c2ec17
     Pseudo is Norm-conserving, Zval =  4.0
        Each V/rho on FFT grid         19.22 Mb     ( 1259712)
        Each G-vector array             4.83 Mb     (  632851)
     Generated using "atomic" code by A. Dal Corso  (Quantum ESPRESSO distribution)
        G-vector shells                 0.02 Mb     (    2367)
     Largest temporary arrays     est. size (Mb)     dimensions
     Using radial grid of 1073 points,  2 beta functions with: 
                l(1) =   0
                l(2) =   1

     atomic species   valence    mass     pseudopotential
        C              4.00    12.01100      C( 1.00)

        Auxiliary wavefunctions        72.43 Mb     (   79117,   60)
        Each subspace H/S matrix        0.05 Mb     (      60,   60)
        Each <psi_i|beta_j> matrix      0.00 Mb     (       4,   15)
      8 Sym. Ops. (no inversion) found
          (note: 40 additional sym.ops. were found but ignored
           their fractional translations are incommensurate with FFT grid)


   Cartesian axes

     site n.     atom                  positions (alat units)
         1           C   tau(   1) = (  -0.0805866   0.0000000   0.0000000  )

     number of k points=     1
                       cart. coord. in units 2pi/alat
        k(    1) = (   0.0000000   0.0000000   0.0000000), wk =   2.0000000

     Dense  grid:   632851 G-vectors     FFT dimensions: ( 108, 108, 108)

     Largest allocated arrays     est. size (Mb)     dimensions
        Kohn-Sham Wavefunctions        18.11 Mb     (   79117,   15)
        NL pseudopotentials             4.83 Mb     (   79117,    4)
        Each V/rho on FFT grid         19.22 Mb     ( 1259712)
        Each G-vector array             4.83 Mb     (  632851)
        G-vector shells                 0.02 Mb     (    2367)
     Largest temporary arrays     est. size (Mb)     dimensions
        Auxiliary wavefunctions        72.43 Mb     (   79117,   60)
        Each subspace H/S matrix        0.05 Mb     (      60,   60)
        Each <psi_i|beta_j> matrix      0.00 Mb     (       4,   15)


     bravais-lattice index     =            0
     lattice parameter (alat)  =      13.2280  a.u.
     unit-cell volume          =    2314.6352 (a.u.)^3
     number of atoms/cell      =            1
     number of atomic types    =            1
     number of electrons       =         4.00
     number of Kohn-Sham states=           15
     kinetic-energy cutoff     =     160.0000  Ry
     charge density cutoff     =     640.0000  Ry
     Exchange-correlation      = PZ ( 1  1  0  0 0)

     celldm(1)=  13.228000  celldm(2)=   0.000000  celldm(3)=   0.000000
     celldm(4)=   0.000000  celldm(5)=   0.000000  celldm(6)=   0.000000

     crystal axes: (cart. coord. in units of alat)
               a(1) = (   1.000000   0.000000   0.000000 )  
               a(2) = (   0.000000   1.000000   0.000000 )  
               a(3) = (   0.000000   0.000000   1.000000 )  

     reciprocal axes: (cart. coord. in units 2 pi/alat)
               b(1) = (  1.000000  0.000000  0.000000 )  
               b(2) = (  0.000000  1.000000  0.000000 )  
               b(3) = (  0.000000  0.000000  1.000000 )  


     PseudoPot. # 1 for  C read from file:
     ./C.UPF
     MD5 check sum: 069fdc73ccf29716ce93193576c2ec17
     Pseudo is Norm-conserving, Zval =  4.0
     Generated using "atomic" code by A. Dal Corso  (Quantum ESPRESSO distribution)
     Using radial grid of 1073 points,  2 beta functions with: 
                l(1) =   0
                l(2) =   1

     atomic species   valence    mass     pseudopotential
        C              4.00    12.01100      C( 1.00)

      8 Sym. Ops. (no inversion) found
          (note: 40 additional sym.ops. were found but ignored
           their fractional translations are incommensurate with FFT grid)


   Cartesian axes

     site n.     atom                  positions (alat units)
         1           C   tau(   1) = (  -0.0805866   0.0000000   0.0000000  )

     number of k points=     1
                       cart. coord. in units 2pi/alat
        k(    1) = (   0.0000000   0.0000000   0.0000000), wk =   2.0000000

     Dense  grid:   632851 G-vectors     FFT dimensions: ( 108, 108, 108)

     Largest allocated arrays     est. size (Mb)     dimensions
        Kohn-Sham Wavefunctions        18.11 Mb     (   79117,   15)
        NL pseudopotentials             4.83 Mb     (   79117,    4)
        Each V/rho on FFT grid         19.22 Mb     ( 1259712)
        Each G-vector array             4.83 Mb     (  632851)
        G-vector shells                 0.02 Mb     (    2367)
     Largest temporary arrays     est. size (Mb)     dimensions
        Auxiliary wavefunctions        72.43 Mb     (   79117,   60)
        Each subspace H/S matrix        0.05 Mb     (      60,   60)
        Each <psi_i|beta_j> matrix      0.00 Mb     (       4,   15)


     bravais-lattice index     =            0
     lattice parameter (alat)  =      13.2280  a.u.
     unit-cell volume          =    2314.6352 (a.u.)^3
     number of atoms/cell      =            1
     number of atomic types    =            1
     number of electrons       =         4.00
     number of Kohn-Sham states=           15
     kinetic-energy cutoff     =     160.0000  Ry
     charge density cutoff     =     640.0000  Ry
     Exchange-correlation      = PZ ( 1  1  0  0 0)

     celldm(1)=  13.228000  celldm(2)=   0.000000  celldm(3)=   0.000000
     celldm(4)=   0.000000  celldm(5)=   0.000000  celldm(6)=   0.000000

     crystal axes: (cart. coord. in units of alat)
               a(1) = (   1.000000   0.000000   0.000000 )  
               a(2) = (   0.000000   1.000000   0.000000 )  
               a(3) = (   0.000000   0.000000   1.000000 )  

     reciprocal axes: (cart. coord. in units 2 pi/alat)
               b(1) = (  1.000000  0.000000  0.000000 )  
               b(2) = (  0.000000  1.000000  0.000000 )  
               b(3) = (  0.000000  0.000000  1.000000 )  


     PseudoPot. # 1 for  C read from file:
     ./C.UPF
     MD5 check sum: 069fdc73ccf29716ce93193576c2ec17
     Pseudo is Norm-conserving, Zval =  4.0
     Generated using "atomic" code by A. Dal Corso  (Quantum ESPRESSO distribution)
     Using radial grid of 1073 points,  2 beta functions with: 
                l(1) =   0
                l(2) =   1

     atomic species   valence    mass     pseudopotential
        C              4.00    12.01100      C( 1.00)

      8 Sym. Ops. (no inversion) found
          (note: 40 additional sym.ops. were found but ignored
           their fractional translations are incommensurate with FFT grid)


   Cartesian axes

     site n.     atom                  positions (alat units)
         1           C   tau(   1) = (  -0.0805866   0.0000000   0.0000000  )

     number of k points=     1
                       cart. coord. in units 2pi/alat
        k(    1) = (   0.0000000   0.0000000   0.0000000), wk =   2.0000000

     Dense  grid:   632851 G-vectors     FFT dimensions: ( 108, 108, 108)

     Largest allocated arrays     est. size (Mb)     dimensions
        Kohn-Sham Wavefunctions        18.11 Mb     (   79117,   15)
        NL pseudopotentials             4.83 Mb     (   79117,    4)
        Each V/rho on FFT grid         19.22 Mb     ( 1259712)
        Each G-vector array             4.83 Mb     (  632851)
        G-vector shells                 0.02 Mb     (    2367)
     Largest temporary arrays     est. size (Mb)     dimensions
        Auxiliary wavefunctions        72.43 Mb     (   79117,   60)
        Each subspace H/S matrix        0.05 Mb     (      60,   60)
        Each <psi_i|beta_j> matrix      0.00 Mb     (       4,   15)

     The potential is recalculated from file :
     ./c.save/charge-density.dat


     The potential is recalculated from file :
     ./c.save/charge-density.dat


     negative rho (up, down):  1.361E-02 0.000E+00

     negative rho (up, down):  1.361E-02 0.000E+00
     Starting wfc are random

     Band Structure Calculation
     Davidson diagonalization with overlap
     Starting wfc are random

     Band Structure Calculation
     Davidson diagonalization with overlap


     The potential is recalculated from file :
     ./c.save/charge-density.dat

     The potential is recalculated from file :
     ./c.save/charge-density.dat



     negative rho (up, down):  1.361E-02 0.000E+00
     negative rho (up, down):  1.361E-02 0.000E+00
     Starting wfc are random

     Band Structure Calculation
     Davidson diagonalization with overlap
     Starting wfc are random

     Band Structure Calculation
     Davidson diagonalization with overlap
