
     Program PWSCF v.5.1 starts on 13Jun2014 at 15: 0:17 

     This program is part of the open-source Quantum ESPRESSO suite
     for quantum simulation of materials; please cite
         "P. Giannozzi et al., J. Phys.:Condens. Matter 21 395502 (2009);
          URL http://www.quantum-espresso.org", 
     in publications or presentations arising from this work. More details at
     http://www.quantum-espresso.org/quote

     Serial version
     Reading input from in_new

     Program PWSCF v.5.1 starts on 13Jun2014 at 15: 0:17 

     This program is part of the open-source Quantum ESPRESSO suite
     for quantum simulation of materials; please cite
         "P. Giannozzi et al., J. Phys.:Condens. Matter 21 395502 (2009);
          URL http://www.quantum-espresso.org", 
     in publications or presentations arising from this work. More details at
     http://www.quantum-espresso.org/quote

     Serial version
     Reading input from in_new

     Program PWSCF v.5.1 starts on 13Jun2014 at 15: 0:17 

     This program is part of the open-source Quantum ESPRESSO suite
     for quantum simulation of materials; please cite
         "P. Giannozzi et al., J. Phys.:Condens. Matter 21 395502 (2009);
          URL http://www.quantum-espresso.org", 
     in publications or presentations arising from this work. More details at
     http://www.quantum-espresso.org/quote

     Serial version
     Message from routine read_cards :
     DEPRECATED: no units specified in CELL_PARAMETERS card
     Message from routine read_cards :
     DEPRECATED: no units specified in CELL_PARAMETERS card
     Reading input from in_new

     Current dimensions of program PWSCF are:

     Current dimensions of program PWSCF are:
     Max number of different atomic species (ntypx) = 10
     Max number of k-points (npk) =  40000
     Max angular momentum in pseudopotentials (lmaxx) =  3
     Max number of different atomic species (ntypx) = 10
     Max number of k-points (npk) =  40000
     Max angular momentum in pseudopotentials (lmaxx) =  3
     Message from routine read_cards :
     DEPRECATED: no units specified in CELL_PARAMETERS card

     Program PWSCF v.5.1 starts on 13Jun2014 at 15: 0:17 

     This program is part of the open-source Quantum ESPRESSO suite
     for quantum simulation of materials; please cite
         "P. Giannozzi et al., J. Phys.:Condens. Matter 21 395502 (2009);
          URL http://www.quantum-espresso.org", 
     in publications or presentations arising from this work. More details at
     http://www.quantum-espresso.org/quote

     Serial version

     Reading input from in_new
     Current dimensions of program PWSCF are:
     Max number of different atomic species (ntypx) = 10
     Max number of k-points (npk) =  40000
     Max angular momentum in pseudopotentials (lmaxx) =  3
     Message from routine read_cards :
     DEPRECATED: no units specified in CELL_PARAMETERS card

     Current dimensions of program PWSCF are:
     Max number of different atomic species (ntypx) = 10
     Max number of k-points (npk) =  40000
     Max angular momentum in pseudopotentials (lmaxx) =  3

     gamma-point specific algorithms are used

     gamma-point specific algorithms are used

     G-vector sticks info
     --------------------
     sticks:   dense  smooth     PW     G-vecs:    dense   smooth      PW
     Sum        8929    8929   2233               632851   632851   79117
     Tot        4465    4465   1117


     G-vector sticks info
     --------------------
     sticks:   dense  smooth     PW     G-vecs:    dense   smooth      PW
     Sum        8929    8929   2233               632851   632851   79117
     Tot        4465    4465   1117


     gamma-point specific algorithms are used

     gamma-point specific algorithms are used

     G-vector sticks info
     --------------------
     sticks:   dense  smooth     PW     G-vecs:    dense   smooth      PW
     Sum        8929    8929   2233               632851   632851   79117
     Tot        4465    4465   1117


     G-vector sticks info
     --------------------
     sticks:   dense  smooth     PW     G-vecs:    dense   smooth      PW
     Sum        8929    8929   2233               632851   632851   79117
     Tot        4465    4465   1117



     bravais-lattice index     =            0
     lattice parameter (alat)  =      13.2280  a.u.
     unit-cell volume          =    2314.6352 (a.u.)^3
     number of atoms/cell      =            2
     number of atomic types    =            2
     number of electrons       =        10.00
     number of Kohn-Sham states=           15
     kinetic-energy cutoff     =     160.0000  Ry
     charge density cutoff     =     640.0000  Ry
     convergence threshold     =      1.0E-10
     mixing beta               =       0.7000
     number of iterations used =            8  plain     mixing
     Exchange-correlation      = PZ ( 1  1  0  0 0)

     celldm(1)=  13.228000  celldm(2)=   0.000000  celldm(3)=   0.000000
     celldm(4)=   0.000000  celldm(5)=   0.000000  celldm(6)=   0.000000

     crystal axes: (cart. coord. in units of alat)
               a(1) = (   1.000000   0.000000   0.000000 )  
               a(2) = (   0.000000   1.000000   0.000000 )  
               a(3) = (   0.000000   0.000000   1.000000 )  

     reciprocal axes: (cart. coord. in units 2 pi/alat)
               b(1) = (  1.000000  0.000000  0.000000 )  
               b(2) = (  0.000000  1.000000  0.000000 )  
               b(3) = (  0.000000  0.000000  1.000000 )  


     PseudoPot. # 1 for  C read from file:
     ./C.UPF
     MD5 check sum: 069fdc73ccf29716ce93193576c2ec17
     Pseudo is Norm-conserving, Zval =  4.0
     Generated using "atomic" code by A. Dal Corso  (Quantum ESPRESSO distribution)
     Using radial grid of 1073 points,  2 beta functions with: 
                l(1) =   0
                l(2) =   1

     PseudoPot. # 2 for  O read from file:
     ./O.UPF
     MD5 check sum: 9e975bd35c3702830f06a582fb8e173f
     Pseudo is Norm-conserving, Zval =  6.0
     Generated using "atomic" code by A. Dal Corso  (Quantum ESPRESSO distribution)
     Using radial grid of 1095 points,  2 beta functions with: 
                l(1) =   0
                l(2) =   1

     atomic species   valence    mass     pseudopotential
        C              4.00    12.01100      C( 1.00)
        O              6.00    15.99900      O( 1.00)

      8 Sym. Ops. (no inversion) found



   Cartesian axes

     site n.     atom                  positions (alat units)
         1           C   tau(   1) = (  -0.0805866   0.0000000   0.0000000  )
         2           O   tau(   2) = (   0.0805866   0.0000000   0.0000000  )

     number of k points=     1
                       cart. coord. in units 2pi/alat
        k(    1) = (   0.0000000   0.0000000   0.0000000), wk =   2.0000000

     Dense  grid:   316426 G-vectors     FFT dimensions: ( 108, 108, 108)

     Largest allocated arrays     est. size (Mb)     dimensions
        Kohn-Sham Wavefunctions         9.05 Mb     (   39559,   15)
        NL pseudopotentials             4.83 Mb     (   39559,    8)
        Each V/rho on FFT grid         19.22 Mb     ( 1259712)
        Each G-vector array             2.41 Mb     (  316426)
        G-vector shells                 0.02 Mb     (    2367)
     Largest temporary arrays     est. size (Mb)     dimensions
        Auxiliary wavefunctions        18.11 Mb     (   39559,   60)
        Each subspace H/S matrix        0.03 Mb     (      60,   60)
        Each <psi_i|beta_j> matrix      0.00 Mb     (       8,   15)
        Arrays for rho mixing         153.77 Mb     ( 1259712,    8)


     bravais-lattice index     =            0
     lattice parameter (alat)  =      13.2280  a.u.
     unit-cell volume          =    2314.6352 (a.u.)^3
     number of atoms/cell      =            2
     number of atomic types    =            2
     number of electrons       =        10.00
     number of Kohn-Sham states=           15
     kinetic-energy cutoff     =     160.0000  Ry
     charge density cutoff     =     640.0000  Ry
     convergence threshold     =      1.0E-10
     mixing beta               =       0.7000
     number of iterations used =            8  plain     mixing
     Exchange-correlation      = PZ ( 1  1  0  0 0)

     celldm(1)=  13.228000  celldm(2)=   0.000000  celldm(3)=   0.000000
     celldm(4)=   0.000000  celldm(5)=   0.000000  celldm(6)=   0.000000

     crystal axes: (cart. coord. in units of alat)
               a(1) = (   1.000000   0.000000   0.000000 )  
               a(2) = (   0.000000   1.000000   0.000000 )  
               a(3) = (   0.000000   0.000000   1.000000 )  

     reciprocal axes: (cart. coord. in units 2 pi/alat)
               b(1) = (  1.000000  0.000000  0.000000 )  
               b(2) = (  0.000000  1.000000  0.000000 )  
               b(3) = (  0.000000  0.000000  1.000000 )  


     PseudoPot. # 1 for  C read from file:
     ./C.UPF
     MD5 check sum: 069fdc73ccf29716ce93193576c2ec17
     Pseudo is Norm-conserving, Zval =  4.0
     Generated using "atomic" code by A. Dal Corso  (Quantum ESPRESSO distribution)
     Using radial grid of 1073 points,  2 beta functions with: 
                l(1) =   0
                l(2) =   1

     PseudoPot. # 2 for  O read from file:
     ./O.UPF
     MD5 check sum: 9e975bd35c3702830f06a582fb8e173f
     Pseudo is Norm-conserving, Zval =  6.0
     Generated using "atomic" code by A. Dal Corso  (Quantum ESPRESSO distribution)
     Using radial grid of 1095 points,  2 beta functions with: 
                l(1) =   0
                l(2) =   1

     atomic species   valence    mass     pseudopotential
        C              4.00    12.01100      C( 1.00)
        O              6.00    15.99900      O( 1.00)

      8 Sym. Ops. (no inversion) found



   Cartesian axes

     site n.     atom                  positions (alat units)
         1           C   tau(   1) = (  -0.0805866   0.0000000   0.0000000  )
         2           O   tau(   2) = (   0.0805866   0.0000000   0.0000000  )

     number of k points=     1
                       cart. coord. in units 2pi/alat
        k(    1) = (   0.0000000   0.0000000   0.0000000), wk =   2.0000000

     Dense  grid:   316426 G-vectors     FFT dimensions: ( 108, 108, 108)

     Largest allocated arrays     est. size (Mb)     dimensions
        Kohn-Sham Wavefunctions         9.05 Mb     (   39559,   15)
        NL pseudopotentials             4.83 Mb     (   39559,    8)
        Each V/rho on FFT grid         19.22 Mb     ( 1259712)
        Each G-vector array             2.41 Mb     (  316426)
        G-vector shells                 0.02 Mb     (    2367)
     Largest temporary arrays     est. size (Mb)     dimensions
        Auxiliary wavefunctions        18.11 Mb     (   39559,   60)
        Each subspace H/S matrix        0.03 Mb     (      60,   60)
        Each <psi_i|beta_j> matrix      0.00 Mb     (       8,   15)
        Arrays for rho mixing         153.77 Mb     ( 1259712,    8)


     bravais-lattice index     =            0
     lattice parameter (alat)  =      13.2280  a.u.
     unit-cell volume          =    2314.6352 (a.u.)^3
     number of atoms/cell      =            2
     number of atomic types    =            2
     number of electrons       =        10.00
     number of Kohn-Sham states=           15
     kinetic-energy cutoff     =     160.0000  Ry
     charge density cutoff     =     640.0000  Ry
     convergence threshold     =      1.0E-10
     mixing beta               =       0.7000
     number of iterations used =            8  plain     mixing
     Exchange-correlation      = PZ ( 1  1  0  0 0)

     celldm(1)=  13.228000  celldm(2)=   0.000000  celldm(3)=   0.000000
     celldm(4)=   0.000000  celldm(5)=   0.000000  celldm(6)=   0.000000

     crystal axes: (cart. coord. in units of alat)
               a(1) = (   1.000000   0.000000   0.000000 )  
               a(2) = (   0.000000   1.000000   0.000000 )  
               a(3) = (   0.000000   0.000000   1.000000 )  

     reciprocal axes: (cart. coord. in units 2 pi/alat)
               b(1) = (  1.000000  0.000000  0.000000 )  
               b(2) = (  0.000000  1.000000  0.000000 )  
               b(3) = (  0.000000  0.000000  1.000000 )  


     PseudoPot. # 1 for  C read from file:
     ./C.UPF
     MD5 check sum: 069fdc73ccf29716ce93193576c2ec17
     Pseudo is Norm-conserving, Zval =  4.0
     Generated using "atomic" code by A. Dal Corso  (Quantum ESPRESSO distribution)
     Using radial grid of 1073 points,  2 beta functions with: 
                l(1) =   0
                l(2) =   1

     PseudoPot. # 2 for  O read from file:
     ./O.UPF
     MD5 check sum: 9e975bd35c3702830f06a582fb8e173f
     Pseudo is Norm-conserving, Zval =  6.0
     Generated using "atomic" code by A. Dal Corso  (Quantum ESPRESSO distribution)
     Using radial grid of 1095 points,  2 beta functions with: 
                l(1) =   0
                l(2) =   1

     atomic species   valence    mass     pseudopotential
        C              4.00    12.01100      C( 1.00)
        O              6.00    15.99900      O( 1.00)

      8 Sym. Ops. (no inversion) found



   Cartesian axes

     site n.     atom                  positions (alat units)
         1           C   tau(   1) = (  -0.0805866   0.0000000   0.0000000  )
         2           O   tau(   2) = (   0.0805866   0.0000000   0.0000000  )

     number of k points=     1
                       cart. coord. in units 2pi/alat
        k(    1) = (   0.0000000   0.0000000   0.0000000), wk =   2.0000000

     Dense  grid:   316426 G-vectors     FFT dimensions: ( 108, 108, 108)

     Largest allocated arrays     est. size (Mb)     dimensions
        Kohn-Sham Wavefunctions         9.05 Mb     (   39559,   15)
        NL pseudopotentials             4.83 Mb     (   39559,    8)
        Each V/rho on FFT grid         19.22 Mb     ( 1259712)
        Each G-vector array             2.41 Mb     (  316426)
        G-vector shells                 0.02 Mb     (    2367)
     Largest temporary arrays     est. size (Mb)     dimensions
        Auxiliary wavefunctions        18.11 Mb     (   39559,   60)
        Each subspace H/S matrix        0.03 Mb     (      60,   60)
        Each <psi_i|beta_j> matrix      0.00 Mb     (       8,   15)
        Arrays for rho mixing         153.77 Mb     ( 1259712,    8)


     bravais-lattice index     =            0
     lattice parameter (alat)  =      13.2280  a.u.
     unit-cell volume          =    2314.6352 (a.u.)^3
     number of atoms/cell      =            2
     number of atomic types    =            2
     number of electrons       =        10.00
     number of Kohn-Sham states=           15
     kinetic-energy cutoff     =     160.0000  Ry
     charge density cutoff     =     640.0000  Ry
     convergence threshold     =      1.0E-10
     mixing beta               =       0.7000
     number of iterations used =            8  plain     mixing
     Exchange-correlation      = PZ ( 1  1  0  0 0)

     celldm(1)=  13.228000  celldm(2)=   0.000000  celldm(3)=   0.000000
     celldm(4)=   0.000000  celldm(5)=   0.000000  celldm(6)=   0.000000

     crystal axes: (cart. coord. in units of alat)
               a(1) = (   1.000000   0.000000   0.000000 )  
               a(2) = (   0.000000   1.000000   0.000000 )  
               a(3) = (   0.000000   0.000000   1.000000 )  

     reciprocal axes: (cart. coord. in units 2 pi/alat)
               b(1) = (  1.000000  0.000000  0.000000 )  
               b(2) = (  0.000000  1.000000  0.000000 )  
               b(3) = (  0.000000  0.000000  1.000000 )  


     PseudoPot. # 1 for  C read from file:
     ./C.UPF
     MD5 check sum: 069fdc73ccf29716ce93193576c2ec17
     Pseudo is Norm-conserving, Zval =  4.0
     Generated using "atomic" code by A. Dal Corso  (Quantum ESPRESSO distribution)
     Using radial grid of 1073 points,  2 beta functions with: 
                l(1) =   0
                l(2) =   1

     PseudoPot. # 2 for  O read from file:
     ./O.UPF
     MD5 check sum: 9e975bd35c3702830f06a582fb8e173f
     Pseudo is Norm-conserving, Zval =  6.0
     Generated using "atomic" code by A. Dal Corso  (Quantum ESPRESSO distribution)
     Using radial grid of 1095 points,  2 beta functions with: 
                l(1) =   0
                l(2) =   1

     atomic species   valence    mass     pseudopotential
        C              4.00    12.01100      C( 1.00)
        O              6.00    15.99900      O( 1.00)

      8 Sym. Ops. (no inversion) found



   Cartesian axes

     site n.     atom                  positions (alat units)
         1           C   tau(   1) = (  -0.0805866   0.0000000   0.0000000  )
         2           O   tau(   2) = (   0.0805866   0.0000000   0.0000000  )

     number of k points=     1
                       cart. coord. in units 2pi/alat
        k(    1) = (   0.0000000   0.0000000   0.0000000), wk =   2.0000000

     Dense  grid:   316426 G-vectors     FFT dimensions: ( 108, 108, 108)

     Largest allocated arrays     est. size (Mb)     dimensions
        Kohn-Sham Wavefunctions         9.05 Mb     (   39559,   15)
        NL pseudopotentials             4.83 Mb     (   39559,    8)
        Each V/rho on FFT grid         19.22 Mb     ( 1259712)
        Each G-vector array             2.41 Mb     (  316426)
        G-vector shells                 0.02 Mb     (    2367)
     Largest temporary arrays     est. size (Mb)     dimensions
        Auxiliary wavefunctions        18.11 Mb     (   39559,   60)
        Each subspace H/S matrix        0.03 Mb     (      60,   60)
        Each <psi_i|beta_j> matrix      0.00 Mb     (       8,   15)
        Arrays for rho mixing         153.77 Mb     ( 1259712,    8)

     Initial potential from superposition of free atoms

     Initial potential from superposition of free atoms

     starting charge    9.99996, renormalised to   10.00000

     starting charge    9.99996, renormalised to   10.00000

     Initial potential from superposition of free atoms

     negative rho (up, down):  5.895E-08 0.000E+00

     negative rho (up, down):  5.895E-08 0.000E+00

     Initial potential from superposition of free atoms

     starting charge    9.99996, renormalised to   10.00000
     Starting wfc are    8 randomized atomic wfcs +    7 random wfc

     total cpu time spent up to now is       21.3 secs

     per-process dynamical memory:   171.3 Mb

     Self-consistent Calculation

     iteration #  1     ecut=   160.00 Ry     beta=0.70
     Davidson diagonalization with overlap

     negative rho (up, down):  5.895E-08 0.000E+00
     Starting wfc are    8 randomized atomic wfcs +    7 random wfc

     starting charge    9.99996, renormalised to   10.00000

     total cpu time spent up to now is       22.1 secs

     per-process dynamical memory:   171.3 Mb

     Self-consistent Calculation

     iteration #  1     ecut=   160.00 Ry     beta=0.70
     Davidson diagonalization with overlap
     ethr =  1.00E-02,  avg # of iterations = 11.0

     total cpu time spent up to now is       24.7 secs

     total energy              =     -43.18790463 Ry
     Harris-Foulkes estimate   =     -43.31376734 Ry
     estimated scf accuracy    <       0.19219427 Ry

     iteration #  2     ecut=   160.00 Ry     beta=0.70
     Davidson diagonalization with overlap
     ethr =  1.92E-03,  avg # of iterations =  4.0

     total cpu time spent up to now is       26.7 secs

     total energy              =     -43.18586713 Ry
     Harris-Foulkes estimate   =     -43.28698302 Ry
     estimated scf accuracy    <       0.20477218 Ry

     iteration #  3     ecut=   160.00 Ry     beta=0.70
     Davidson diagonalization with overlap
     ethr =  1.92E-03,  avg # of iterations =  2.0

     total cpu time spent up to now is       28.4 secs

     total energy              =     -43.23783639 Ry
     Harris-Foulkes estimate   =     -43.25145042 Ry
     estimated scf accuracy    <       0.03592561 Ry

     iteration #  4     ecut=   160.00 Ry     beta=0.70
     Davidson diagonalization with overlap
     ethr =  3.59E-04,  avg # of iterations =  1.0

     total cpu time spent up to now is       29.8 secs

     total energy              =     -43.24305327 Ry
     Harris-Foulkes estimate   =     -43.24316714 Ry
     estimated scf accuracy    <       0.00026608 Ry

     iteration #  5     ecut=   160.00 Ry     beta=0.70
     Davidson diagonalization with overlap
     ethr =  2.66E-06,  avg # of iterations =  6.0

     total cpu time spent up to now is       32.9 secs

     total energy              =     -43.24321840 Ry
     Harris-Foulkes estimate   =     -43.24323367 Ry
     estimated scf accuracy    <       0.00005217 Ry

     iteration #  6     ecut=   160.00 Ry     beta=0.70
     Davidson diagonalization with overlap
     ethr =  5.22E-07,  avg # of iterations =  1.0

     total cpu time spent up to now is       34.4 secs

     total energy              =     -43.24321945 Ry
     Harris-Foulkes estimate   =     -43.24322168 Ry
     estimated scf accuracy    <       0.00000604 Ry

     iteration #  7     ecut=   160.00 Ry     beta=0.70
     Davidson diagonalization with overlap
     Starting wfc are    8 randomized atomic wfcs +    7 random wfc

     negative rho (up, down):  5.895E-08 0.000E+00
     Starting wfc are    8 randomized atomic wfcs +    7 random wfc
     ethr =  6.04E-08,  avg # of iterations =  4.0

     total cpu time spent up to now is       36.2 secs

     per-process dynamical memory:   171.3 Mb

     Self-consistent Calculation

     iteration #  1     ecut=   160.00 Ry     beta=0.70
     Davidson diagonalization with overlap

     total cpu time spent up to now is       36.5 secs

     per-process dynamical memory:   171.3 Mb

     Self-consistent Calculation

     iteration #  1     ecut=   160.00 Ry     beta=0.70
     Davidson diagonalization with overlap

     total cpu time spent up to now is       36.8 secs

     total energy              =     -43.24322049 Ry
     Harris-Foulkes estimate   =     -43.24322050 Ry
     estimated scf accuracy    <       0.00000004 Ry

     iteration #  8     ecut=   160.00 Ry     beta=0.70
     Davidson diagonalization with overlap
     ethr =  1.00E-02,  avg # of iterations = 11.0
     ethr =  4.36E-10,  avg # of iterations =  6.0
     ethr =  1.00E-02,  avg # of iterations = 11.0

     total cpu time spent up to now is       40.7 secs

     total energy              =     -43.24322050 Ry
     Harris-Foulkes estimate   =     -43.24322050 Ry
     estimated scf accuracy    <          1.0E-09 Ry

     iteration #  9     ecut=   160.00 Ry     beta=0.70
     Davidson diagonalization with overlap

     total cpu time spent up to now is       41.3 secs

     total energy              =     -43.18790463 Ry
     Harris-Foulkes estimate   =     -43.31376734 Ry
     estimated scf accuracy    <       0.19219427 Ry

     iteration #  2     ecut=   160.00 Ry     beta=0.70
     Davidson diagonalization with overlap

     total cpu time spent up to now is       41.3 secs

     total energy              =     -43.18790463 Ry
     Harris-Foulkes estimate   =     -43.31376734 Ry
     estimated scf accuracy    <       0.19219427 Ry

     iteration #  2     ecut=   160.00 Ry     beta=0.70
     Davidson diagonalization with overlap
     ethr =  1.00E-02,  avg # of iterations = 11.0

     total cpu time spent up to now is       42.4 secs

     total energy              =     -43.18790463 Ry
     Harris-Foulkes estimate   =     -43.31376734 Ry
     estimated scf accuracy    <       0.19219427 Ry

     iteration #  2     ecut=   160.00 Ry     beta=0.70
     Davidson diagonalization with overlap
     ethr =  1.02E-11,  avg # of iterations =  5.0

     total cpu time spent up to now is       43.3 secs

     total energy              =     -43.24322050 Ry
     Harris-Foulkes estimate   =     -43.24322050 Ry
     estimated scf accuracy    <          1.2E-10 Ry

     iteration # 10     ecut=   160.00 Ry     beta=0.70
     Davidson diagonalization with overlap
     ethr =  1.92E-03,  avg # of iterations =  4.0
     ethr =  1.92E-03,  avg # of iterations =  4.0

     total cpu time spent up to now is       44.6 secs

     total energy              =     -43.18586713 Ry
     Harris-Foulkes estimate   =     -43.28698302 Ry
     estimated scf accuracy    <       0.20477218 Ry

     iteration #  3     ecut=   160.00 Ry     beta=0.70
     Davidson diagonalization with overlap
     ethr =  1.19E-12,  avg # of iterations =  3.0

     total cpu time spent up to now is       45.1 secs

     total energy              =     -43.18586713 Ry
     Harris-Foulkes estimate   =     -43.28698302 Ry
     estimated scf accuracy    <       0.20477218 Ry

     iteration #  3     ecut=   160.00 Ry     beta=0.70
     Davidson diagonalization with overlap
     ethr =  1.92E-03,  avg # of iterations =  4.0

     total cpu time spent up to now is       45.6 secs

     End of self-consistent calculation

          k = 0.0000 0.0000 0.0000 ( 39559 PWs)   bands (ev):

   -28.6777 -13.6035 -11.5385 -11.5385  -8.5587  -1.6465  -1.6465  -0.0627
     2.3628   2.5311   2.7042   2.7042   2.7887   3.6606   4.8518

     highest occupied, lowest unoccupied level (ev):    -8.5587   -1.6465

!    total energy              =     -43.24322050 Ry
     Harris-Foulkes estimate   =     -43.24322050 Ry
     estimated scf accuracy    <          6.6E-12 Ry

     The total energy is the sum of the following terms:

     one-electron contribution =     -71.31640441 Ry
     hartree contribution      =      36.71930891 Ry
     xc contribution           =      -9.91608965 Ry
     ewald contribution        =       1.26996465 Ry

     convergence has been achieved in  10 iterations

     Forces acting on atoms (Ry/au):

     atom    1 type  1   force =     0.04577665    0.00000000    0.00000000
     atom    2 type  2   force =    -0.04577665    0.00000000    0.00000000

     Total force =     0.064738     Total SCF correction =     0.000007


     entering subroutine stress ...

     ethr =  1.92E-03,  avg # of iterations =  2.0

     total cpu time spent up to now is       46.1 secs

     total energy              =     -43.18586713 Ry
     Harris-Foulkes estimate   =     -43.28698302 Ry
     estimated scf accuracy    <       0.20477218 Ry

     iteration #  3     ecut=   160.00 Ry     beta=0.70
     Davidson diagonalization with overlap

     total cpu time spent up to now is       46.7 secs

     total energy              =     -43.23783639 Ry
     Harris-Foulkes estimate   =     -43.25145042 Ry
     estimated scf accuracy    <       0.03592561 Ry

     iteration #  4     ecut=   160.00 Ry     beta=0.70
     Davidson diagonalization with overlap
          total   stress  (Ry/bohr**3)                   (kbar)     P=   -2.20
  -0.00004407   0.00000000   0.00000000         -6.48      0.00      0.00
   0.00000000  -0.00000043   0.00000000          0.00     -0.06      0.00
   0.00000000   0.00000000  -0.00000043          0.00      0.00     -0.06


     Writing output data file co.save

     init_run     :      1.77s CPU     21.21s WALL (       1 calls)
     electrons    :     23.83s CPU     24.31s WALL (       1 calls)
     forces       :      0.38s CPU      0.38s WALL (       1 calls)
     stress       :      1.04s CPU      1.08s WALL (       1 calls)

     Called by init_run:
     wfcinit      :      0.68s CPU      0.67s WALL (       1 calls)
     potinit      :      0.57s CPU     20.00s WALL (       1 calls)

     Called by electrons:
     c_bands      :     18.04s CPU     18.07s WALL (      10 calls)
     sum_band     :      3.07s CPU      3.08s WALL (      10 calls)
     v_of_rho     :      1.77s CPU      1.78s WALL (      11 calls)
     mix_rho      :      0.94s CPU      1.37s WALL (      10 calls)

     Called by c_bands:
     init_us_2    :      0.15s CPU      0.17s WALL (      21 calls)
     regterg      :     17.92s CPU     17.96s WALL (      10 calls)

     Called by *egterg:
     h_psi        :     14.42s CPU     14.39s WALL (      54 calls)
     g_psi        :      0.08s CPU      0.09s WALL (      43 calls)
     rdiaghg      :      0.02s CPU      0.02s WALL (      53 calls)

     Called by h_psi:
     add_vuspsi   :      0.27s CPU      0.27s WALL (      54 calls)

     General routines
     calbec       :      0.32s CPU      0.35s WALL (      59 calls)
     fft          :      1.61s CPU      1.60s WALL (      48 calls)
     fftw         :     14.24s CPU     13.95s WALL (     596 calls)


     PWSCF        :    27.18s CPU        47.17s WALL


   This run was terminated on:  15: 1: 4  13Jun2014            

=------------------------------------------------------------------------------=
   JOB DONE.
=------------------------------------------------------------------------------=
     ethr =  1.92E-03,  avg # of iterations =  2.0
     ethr =  3.59E-04,  avg # of iterations =  1.0

     total cpu time spent up to now is       48.2 secs

     total energy              =     -43.23783639 Ry
     Harris-Foulkes estimate   =     -43.25145042 Ry
     estimated scf accuracy    <       0.03592561 Ry

     iteration #  4     ecut=   160.00 Ry     beta=0.70
     Davidson diagonalization with overlap
     ethr =  1.92E-03,  avg # of iterations =  2.0

     total cpu time spent up to now is       48.5 secs

     total energy              =     -43.24305327 Ry
     Harris-Foulkes estimate   =     -43.24316714 Ry
     estimated scf accuracy    <       0.00026608 Ry

     iteration #  5     ecut=   160.00 Ry     beta=0.70
     Davidson diagonalization with overlap

     total cpu time spent up to now is       49.2 secs

     total energy              =     -43.23783639 Ry
     Harris-Foulkes estimate   =     -43.25145042 Ry
     estimated scf accuracy    <       0.03592561 Ry

     iteration #  4     ecut=   160.00 Ry     beta=0.70
     Davidson diagonalization with overlap
     ethr =  3.59E-04,  avg # of iterations =  1.0

     total cpu time spent up to now is       50.8 secs

     total energy              =     -43.24305327 Ry
     Harris-Foulkes estimate   =     -43.24316714 Ry
     estimated scf accuracy    <       0.00026608 Ry

     iteration #  5     ecut=   160.00 Ry     beta=0.70
     Davidson diagonalization with overlap
     ethr =  2.66E-06,  avg # of iterations =  6.0
     ethr =  3.59E-04,  avg # of iterations =  1.0

     total cpu time spent up to now is       51.6 secs

     total energy              =     -43.24321840 Ry
     Harris-Foulkes estimate   =     -43.24323367 Ry
     estimated scf accuracy    <       0.00005217 Ry

     iteration #  6     ecut=   160.00 Ry     beta=0.70
     Davidson diagonalization with overlap

     total cpu time spent up to now is       51.9 secs

     total energy              =     -43.24305327 Ry
     Harris-Foulkes estimate   =     -43.24316714 Ry
     estimated scf accuracy    <       0.00026608 Ry

     iteration #  5     ecut=   160.00 Ry     beta=0.70
     Davidson diagonalization with overlap
     ethr =  5.22E-07,  avg # of iterations =  1.0

     total cpu time spent up to now is       53.3 secs

     total energy              =     -43.24321945 Ry
     Harris-Foulkes estimate   =     -43.24322168 Ry
     estimated scf accuracy    <       0.00000604 Ry

     iteration #  7     ecut=   160.00 Ry     beta=0.70
     Davidson diagonalization with overlap
     ethr =  2.66E-06,  avg # of iterations =  6.0
     ethr =  6.04E-08,  avg # of iterations =  4.0

     total cpu time spent up to now is       55.6 secs

     total energy              =     -43.24322049 Ry
     Harris-Foulkes estimate   =     -43.24322050 Ry
     estimated scf accuracy    <       0.00000004 Ry

     iteration #  8     ecut=   160.00 Ry     beta=0.70

     total cpu time spent up to now is       55.6 secs

     total energy              =     -43.24321840 Ry
     Harris-Foulkes estimate   =     -43.24323367 Ry
     estimated scf accuracy    <       0.00005217 Ry

     iteration #  6     ecut=   160.00 Ry     beta=0.70
     Davidson diagonalization with overlap
     Davidson diagonalization with overlap
     ethr =  2.66E-06,  avg # of iterations =  6.0

     total cpu time spent up to now is       56.6 secs

     total energy              =     -43.24321840 Ry
     Harris-Foulkes estimate   =     -43.24323367 Ry
     estimated scf accuracy    <       0.00005217 Ry

     iteration #  6     ecut=   160.00 Ry     beta=0.70
     Davidson diagonalization with overlap
     ethr =  5.22E-07,  avg # of iterations =  1.0
     ethr =  4.36E-10,  avg # of iterations =  6.0

     total cpu time spent up to now is       58.3 secs

     total energy              =     -43.24321945 Ry
     Harris-Foulkes estimate   =     -43.24322168 Ry
     estimated scf accuracy    <       0.00000604 Ry

     iteration #  7     ecut=   160.00 Ry     beta=0.70
     Davidson diagonalization with overlap
     ethr =  5.22E-07,  avg # of iterations =  1.0

     total cpu time spent up to now is       58.8 secs

     total energy              =     -43.24322050 Ry
     Harris-Foulkes estimate   =     -43.24322050 Ry
     estimated scf accuracy    <          1.0E-09 Ry

     iteration #  9     ecut=   160.00 Ry     beta=0.70
     Davidson diagonalization with overlap

     total cpu time spent up to now is       59.3 secs

     total energy              =     -43.24321945 Ry
     Harris-Foulkes estimate   =     -43.24322168 Ry
     estimated scf accuracy    <       0.00000604 Ry

     iteration #  7     ecut=   160.00 Ry     beta=0.70
     Davidson diagonalization with overlap
     ethr =  1.02E-11,  avg # of iterations =  5.0
     ethr =  6.04E-08,  avg # of iterations =  4.0

     total cpu time spent up to now is       61.5 secs

     total energy              =     -43.24322050 Ry
     Harris-Foulkes estimate   =     -43.24322050 Ry
     estimated scf accuracy    <          1.2E-10 Ry

     iteration # 10     ecut=   160.00 Ry     beta=0.70
     Davidson diagonalization with overlap

     total cpu time spent up to now is       61.7 secs

     total energy              =     -43.24322049 Ry
     Harris-Foulkes estimate   =     -43.24322050 Ry
     estimated scf accuracy    <       0.00000004 Ry

     iteration #  8     ecut=   160.00 Ry     beta=0.70
     Davidson diagonalization with overlap
     ethr =  6.04E-08,  avg # of iterations =  4.0

     total cpu time spent up to now is       62.8 secs

     total energy              =     -43.24322049 Ry
     Harris-Foulkes estimate   =     -43.24322050 Ry
     estimated scf accuracy    <       0.00000004 Ry

     iteration #  8     ecut=   160.00 Ry     beta=0.70
     Davidson diagonalization with overlap
     ethr =  1.19E-12,  avg # of iterations =  3.0

     total cpu time spent up to now is       63.6 secs

     End of self-consistent calculation

          k = 0.0000 0.0000 0.0000 ( 39559 PWs)   bands (ev):

   -28.6777 -13.6035 -11.5385 -11.5385  -8.5587  -1.6465  -1.6465  -0.0627
     2.3628   2.5311   2.7042   2.7042   2.7887   3.6606   4.8518

     highest occupied, lowest unoccupied level (ev):    -8.5587   -1.6465

!    total energy              =     -43.24322050 Ry
     Harris-Foulkes estimate   =     -43.24322050 Ry
     estimated scf accuracy    <          6.6E-12 Ry

     The total energy is the sum of the following terms:

     one-electron contribution =     -71.31640441 Ry
     hartree contribution      =      36.71930891 Ry
     xc contribution           =      -9.91608965 Ry
     ewald contribution        =       1.26996465 Ry

     convergence has been achieved in  10 iterations

     Forces acting on atoms (Ry/au):

     atom    1 type  1   force =     0.04577665    0.00000000    0.00000000
     atom    2 type  2   force =    -0.04577665    0.00000000    0.00000000

     Total force =     0.064738     Total SCF correction =     0.000007


     entering subroutine stress ...

          total   stress  (Ry/bohr**3)                   (kbar)     P=   -2.20
  -0.00004407   0.00000000   0.00000000         -6.48      0.00      0.00
   0.00000000  -0.00000043   0.00000000          0.00     -0.06      0.00
   0.00000000   0.00000000  -0.00000043          0.00      0.00     -0.06


     Writing output data file co.save

     init_run     :      2.01s CPU     36.12s WALL (       1 calls)
     electrons    :     26.40s CPU     27.39s WALL (       1 calls)
     forces       :      0.36s CPU      0.36s WALL (       1 calls)
     stress       :      1.03s CPU      1.07s WALL (       1 calls)

     Called by init_run:
     wfcinit      :      0.56s CPU      0.55s WALL (       1 calls)
     potinit      :      0.66s CPU     34.76s WALL (       1 calls)

     Called by electrons:
     c_bands      :     19.98s CPU     19.99s WALL (      10 calls)
     sum_band     :      3.45s CPU      3.48s WALL (      10 calls)
     v_of_rho     :      1.99s CPU     15.02s WALL (      11 calls)
     mix_rho      :      1.06s CPU      1.99s WALL (      10 calls)

     Called by c_bands:
     init_us_2    :      0.15s CPU      0.17s WALL (      21 calls)
     regterg      :     19.87s CPU     19.87s WALL (      10 calls)

     Called by *egterg:
     h_psi        :     15.82s CPU     15.92s WALL (      54 calls)
     g_psi        :      0.07s CPU      0.09s WALL (      43 calls)
     rdiaghg      :      0.02s CPU      0.02s WALL (      53 calls)

     Called by h_psi:
     add_vuspsi   :      0.28s CPU      0.32s WALL (      54 calls)

     General routines
     calbec       :      0.31s CPU      0.37s WALL (      59 calls)
     fft          :      1.80s CPU      1.78s WALL (      48 calls)
     fftw         :     15.55s CPU     15.30s WALL (     596 calls)


     PWSCF        :  0m30.01s CPU     1m 5.19s WALL


   This run was terminated on:  15: 1:22  13Jun2014            

=------------------------------------------------------------------------------=
   JOB DONE.
=------------------------------------------------------------------------------=
     ethr =  4.36E-10,  avg # of iterations =  6.0

     total cpu time spent up to now is       66.5 secs

     total energy              =     -43.24322050 Ry
     Harris-Foulkes estimate   =     -43.24322050 Ry
     estimated scf accuracy    <          1.0E-09 Ry

     iteration #  9     ecut=   160.00 Ry     beta=0.70
     Davidson diagonalization with overlap
     ethr =  4.36E-10,  avg # of iterations =  6.0

     total cpu time spent up to now is       67.5 secs

     total energy              =     -43.24322050 Ry
     Harris-Foulkes estimate   =     -43.24322050 Ry
     estimated scf accuracy    <          1.0E-09 Ry

     iteration #  9     ecut=   160.00 Ry     beta=0.70
     Davidson diagonalization with overlap
     ethr =  1.02E-11,  avg # of iterations =  5.0

     total cpu time spent up to now is       70.4 secs

     total energy              =     -43.24322050 Ry
     Harris-Foulkes estimate   =     -43.24322050 Ry
     estimated scf accuracy    <          1.2E-10 Ry

     iteration # 10     ecut=   160.00 Ry     beta=0.70
     Davidson diagonalization with overlap
     ethr =  1.02E-11,  avg # of iterations =  5.0

     total cpu time spent up to now is       71.4 secs

     total energy              =     -43.24322050 Ry
     Harris-Foulkes estimate   =     -43.24322050 Ry
     estimated scf accuracy    <          1.2E-10 Ry

     iteration # 10     ecut=   160.00 Ry     beta=0.70
     Davidson diagonalization with overlap
     ethr =  1.19E-12,  avg # of iterations =  3.0

     total cpu time spent up to now is       73.5 secs

     End of self-consistent calculation

          k = 0.0000 0.0000 0.0000 ( 39559 PWs)   bands (ev):

   -28.6777 -13.6035 -11.5385 -11.5385  -8.5587  -1.6465  -1.6465  -0.0627
     2.3628   2.5311   2.7042   2.7042   2.7887   3.6606   4.8518

     highest occupied, lowest unoccupied level (ev):    -8.5587   -1.6465

!    total energy              =     -43.24322050 Ry
     Harris-Foulkes estimate   =     -43.24322050 Ry
     estimated scf accuracy    <          6.6E-12 Ry

     The total energy is the sum of the following terms:

     one-electron contribution =     -71.31640441 Ry
     hartree contribution      =      36.71930891 Ry
     xc contribution           =      -9.91608965 Ry
     ewald contribution        =       1.26996465 Ry

     convergence has been achieved in  10 iterations

     Forces acting on atoms (Ry/au):

     ethr =  1.19E-12,  avg # of iterations =  3.0
     atom    1 type  1   force =     0.04577665    0.00000000    0.00000000
     atom    2 type  2   force =    -0.04577665    0.00000000    0.00000000

     Total force =     0.064738     Total SCF correction =     0.000007


     entering subroutine stress ...


     total cpu time spent up to now is       74.4 secs

     End of self-consistent calculation

          k = 0.0000 0.0000 0.0000 ( 39559 PWs)   bands (ev):

   -28.6777 -13.6035 -11.5385 -11.5385  -8.5587  -1.6465  -1.6465  -0.0627
     2.3628   2.5311   2.7042   2.7042   2.7887   3.6606   4.8518

     highest occupied, lowest unoccupied level (ev):    -8.5587   -1.6465

!    total energy              =     -43.24322050 Ry
     Harris-Foulkes estimate   =     -43.24322050 Ry
     estimated scf accuracy    <          6.6E-12 Ry

     The total energy is the sum of the following terms:

     one-electron contribution =     -71.31640441 Ry
     hartree contribution      =      36.71930891 Ry
     xc contribution           =      -9.91608965 Ry
     ewald contribution        =       1.26996465 Ry

     convergence has been achieved in  10 iterations

     Forces acting on atoms (Ry/au):

     atom    1 type  1   force =     0.04577665    0.00000000    0.00000000
     atom    2 type  2   force =    -0.04577665    0.00000000    0.00000000

     Total force =     0.064738     Total SCF correction =     0.000007


     entering subroutine stress ...

          total   stress  (Ry/bohr**3)                   (kbar)     P=   -2.20
  -0.00004407   0.00000000   0.00000000         -6.48      0.00      0.00
   0.00000000  -0.00000043   0.00000000          0.00     -0.06      0.00
   0.00000000   0.00000000  -0.00000043          0.00      0.00     -0.06


     Writing output data file co.save

     init_run     :      1.77s CPU     21.99s WALL (       1 calls)
     electrons    :     37.66s CPU     51.43s WALL (       1 calls)
     forces       :      0.55s CPU      0.55s WALL (       1 calls)
     stress       :      1.48s CPU      1.53s WALL (       1 calls)

     Called by init_run:
     wfcinit      :      0.53s CPU      0.52s WALL (       1 calls)
     potinit      :      0.56s CPU     20.77s WALL (       1 calls)

     Called by electrons:
     c_bands      :     28.71s CPU     42.40s WALL (      10 calls)
     sum_band     :      5.00s CPU      5.02s WALL (      10 calls)
     v_of_rho     :      2.50s CPU      2.51s WALL (      11 calls)
     mix_rho      :      1.37s CPU      1.41s WALL (      10 calls)

     Called by c_bands:
     init_us_2    :      0.21s CPU      0.22s WALL (      21 calls)
     regterg      :     28.56s CPU     42.24s WALL (      10 calls)

     Called by *egterg:
     h_psi        :     22.84s CPU     22.81s WALL (      54 calls)
     g_psi        :      0.11s CPU      0.13s WALL (      43 calls)
     rdiaghg      :      0.02s CPU      0.03s WALL (      53 calls)

     Called by h_psi:
     add_vuspsi   :      0.43s CPU      0.45s WALL (      54 calls)

     General routines
     calbec       :      0.41s CPU      0.47s WALL (      59 calls)
     fft          :      2.69s CPU      2.68s WALL (      48 calls)
     fftw         :     23.02s CPU     22.44s WALL (     596 calls)


     PWSCF        :  0m41.71s CPU     1m15.82s WALL


   This run was terminated on:  15: 1:33  13Jun2014            

=------------------------------------------------------------------------------=
   JOB DONE.
=------------------------------------------------------------------------------=
          total   stress  (Ry/bohr**3)                   (kbar)     P=   -2.20
  -0.00004407   0.00000000   0.00000000         -6.48      0.00      0.00
   0.00000000  -0.00000043   0.00000000          0.00     -0.06      0.00
   0.00000000   0.00000000  -0.00000043          0.00      0.00     -0.06


     Writing output data file co.save

     init_run     :      2.02s CPU     36.46s WALL (       1 calls)
     electrons    :     37.82s CPU     37.92s WALL (       1 calls)
     forces       :      0.52s CPU      0.53s WALL (       1 calls)
     stress       :      1.24s CPU      1.28s WALL (       1 calls)

     Called by init_run:
     wfcinit      :      0.83s CPU      1.24s WALL (       1 calls)
     potinit      :      0.66s CPU     34.69s WALL (       1 calls)

     Called by electrons:
     c_bands      :     28.92s CPU     28.93s WALL (      10 calls)
     sum_band     :      5.02s CPU      5.04s WALL (      10 calls)
     v_of_rho     :      2.49s CPU      2.50s WALL (      11 calls)
     mix_rho      :      1.34s CPU      1.37s WALL (      10 calls)

     Called by c_bands:
     init_us_2    :      0.21s CPU      0.23s WALL (      21 calls)
     regterg      :     28.73s CPU     28.76s WALL (      10 calls)

     Called by *egterg:
     h_psi        :     23.31s CPU     23.21s WALL (      54 calls)
     g_psi        :      0.09s CPU      0.13s WALL (      43 calls)
     rdiaghg      :      0.02s CPU      0.03s WALL (      53 calls)

     Called by h_psi:
     add_vuspsi   :      0.52s CPU      0.49s WALL (      54 calls)

     General routines
     calbec       :      0.38s CPU      0.49s WALL (      59 calls)
     fft          :      2.71s CPU      2.65s WALL (      48 calls)
     fftw         :     24.00s CPU     22.83s WALL (     596 calls)


     PWSCF        :  0m41.76s CPU     1m16.38s WALL


   This run was terminated on:  15: 1:34  13Jun2014            

=------------------------------------------------------------------------------=
   JOB DONE.
=------------------------------------------------------------------------------=
